formula,defectid,site,Eb_sum,Vr_max,Eg,Ev
Al2Co1O4,0009491,1,9.56244944457087,-1.2318970816502175,3.1976,6.2195
Al2Mg1O4,0009494,1,9.711042394277127,-2.8945619964631555,5.1431,6.8115
Al2Ni1O4,0009499,1,9.574237534429107,-1.242157708529182,2.6004,6.2466
Al2Ni1O4,0009499,2,8.49933956007682,-1.242157708529182,2.6004,5.5104
Al2O3,0009540,1,10.649135508781395,-2.8945619964631555,5.8646,6.995
Al2Mn1O4,0009572,1,9.571719524803793,-1.994603679653242,3.0524,6.1385
Al2O3,0009576,1,10.649135508781395,-2.8945619964631555,5.8647,6.995
Ba1O1,0009594,1,10.180656153899415,-2.8403280769497066,2.095,5.6919
Ca1O1,0009596,1,11.020274752984376,-3.2905001259273035,3.6404,6.9863
Co3O4,0009648,1,,-1.2318970816502175,1.6478,4.1201
Fe1O1,0009684,1,,,1.089,5.0763
Fe2Mg1O4,0009694,1,7.947675654645458,-1.2626789622871115,1.3811,4.2252
Fe2O3,0009808,1,8.29797985593917,-1.2626789622871115,1.8317,3.5343
In2Mn1O4,0009859,1,7.193937193024108,-1.5993795332042406,1.035,4.2135
In2O3,0009889,1,7.4787590664084815,-1.5993795332042406,0.9505,3.7275
Co1In2O4,0009921,1,7.1846671127911845,-1.2318970816502175,1.0102,4.052
In2Mg1O4,0009931,1,7.333260062497441,-1.5993795332042406,1.8489,4.4126
In2Ni1O4,0009944,1,7.196455202649422,-1.242157708529182,0.4499,3.6058
In2Ni1O4,0009944,2,6.914151338890362,-1.242157708529182,0.4499,3.4805
Mg1O1,0009973,1,10.345144576146483,-3.116950431898758,4.4752,6.8887
Ni1O1,0010021,1,9.524315417058364,-1.242157708529182,2.3894,3.7973
O1Sr1,0010079,1,10.455647588229251,-3.0678237941146254,3.2796,6.5707
Ba1O3Ti1,0010375,1,13.398394262108852,-1.9122077365342869,1.8599,5.3369
Ba1O3Ti1,0010375,2,6.611290159509242,-1.9122077365342869,1.8599,5.4037
Co1O1,0010389,1,6.3023912519392935,-1.2318970816502175,1.0462,4.2751
Mn1O1,0010438,1,6.3394715728709885,-1.994603679653242,0.7035,4.4315
Co1O1,0010528,1,6.3023912519392935,-1.2318970816502175,1.2341,4.3434
O3Sr1Ti1,0010541,1,6.611290159509242,-1.9122077365342869,1.9408,5.396
O2Ti1,0010549,1,9.916935239263863,-1.9122077365342869,2.2705,4.9268
Mn1O1,0010576,1,6.3394715728709885,-1.994603679653242,0.8642,4.4297
O2Ti1,0010720,1,9.916935239263863,-1.9122077365342869,1.9186,4.9636
O2Ti1,0010731,1,6.611290159509242,-1.9122077365342869,3.3933,5.9328
Mg1Mn2O4,0011233,1,7.616692432573869,-0.5156224113418986,1.4257,4.1736
Fe2Ni1O4,0011580,1,7.810870794797439,-1.242157708529182,1.2021,3.7345
Fe2Ni1O4,0011580,2,7.810870794797439,-1.242157708529182,1.2021,3.5181
Mn1O2,0011671,1,6.759374010733628,-0.433744681701679,0.1764,2.0859
O2Ti1,0011764,1,9.916935239263863,-1.9122077365342869,2.2989,4.9109
O2Ti1,0011764,2,9.916935239263863,-1.9122077365342869,2.2989,5.3669
Mn2Ni1O4,0011908,1,7.47988757272585,-0.5156224113418986,1.162,3.539
Mn2Ni1O4,0011908,2,7.47988757272585,-0.5156224113418986,1.162,3.5487
Fe2Mg1O4,0011911,1,7.597371453351746,-1.2626789622871115,1.1513,3.8945
Fe2Mg1O4,0011911,2,7.947675654645458,-1.2626789622871115,1.1513,3.772
Mn1Ni1O3,0012011,1,7.6810211461752065,-0.433744681701679,1.5539,2.704
Mn1Ni1O3,0012072,1,7.6810211461752065,-0.433744681701679,1.513,2.8808
Ba1Mn1O2,0012370,1,6.563287837735299,-1.994603679653242,1.7167,5.1318
Al2Ca1O4,0107269,1,8.997992672052156,-2.8945619964631555,4.3548,6.4142
Al2Ca1O4,0107269,2,7.161280213221427,-2.8945619964631555,4.3548,6.185
Al2Ca1O4,0107269,3,7.161280213221427,-2.8945619964631555,4.3548,6.3263
Al2Ca1O4,0107269,4,8.997992672052156,-2.8945619964631555,4.3548,6.2954
Al2Ca1O4,0107269,5,8.997992672052156,-2.8945619964631555,4.3548,6.4336
Al2Ca1O4,0107269,6,7.161280213221427,-2.8945619964631555,4.3548,6.2966
Al2Ca1O4,0107269,7,7.161280213221427,-2.8945619964631555,4.3548,6.2656
Al2Ca1O4,0107269,8,7.161280213221427,-2.8945619964631555,4.3548,6.3068
Al2Ca1O4,0107269,9,7.161280213221427,-2.8945619964631555,4.3548,6.1267
Al2Ca1O4,0107269,10,7.161280213221427,-2.8945619964631555,4.3548,6.3209
Al2Ca1O4,0107269,11,7.161280213221427,-2.8945619964631555,4.3548,6.3739
Al2Ca1O4,0107269,12,7.161280213221427,-2.8945619964631555,4.3548,6.2817
Al4Ca1O7,0107702,1,7.161280213221427,-2.8945619964631555,4.0231,6.2426
Al4Ca1O7,0107702,2,7.161280213221427,-2.8945619964631555,4.0231,6.3909
Al4Ca1O7,0107702,3,7.161280213221427,-2.8945619964631555,4.0231,6.2107
Al4Ca1O7,0107702,4,7.986851631586046,-2.8945619964631555,4.0231,6.7006
Al2Ca2O5,0107847,1,10.834705130882885,-2.8945619964631555,3.5745,6.0239
Al2Ca2O5,0107847,2,8.997992672052156,-2.8945619964631555,3.5745,6.5147
Al2Ca2O5,0107847,3,12.671417589713615,-2.8945619964631555,3.5745,6.6988
Al6Ca5O14,0107855,1,8.997992672052156,-2.8945619964631555,4.2323,6.6404
Al6Ca5O14,0107855,2,7.161280213221427,-2.8945619964631555,4.2323,6.1511
Al6Ca5O14,0107855,3,5.3245677543906975,-2.8945619964631555,4.2323,6.3502
Al6Ca5O14,0107855,4,8.997992672052156,-2.8945619964631555,4.2323,6.5272
Al6Ca5O14,0107855,5,8.997992672052156,-2.8945619964631555,4.2323,6.5428
Al6Ca5O14,0107855,6,8.172421253687537,-2.8945619964631555,4.2323,6.2626
Al6Ca5O14,0107855,7,10.009133712518267,-2.8945619964631555,4.2323,6.1399
Al6Ca5O14,0107855,8,7.161280213221427,-2.8945619964631555,4.2323,6.1143
Al6Ca5O14,0107855,9,8.172421253687537,-2.8945619964631555,4.2323,6.3765
Al2Ba1O4,0108143,1,5.3245677543906975,-2.8945619964631555,4.1114,6.1846
Al2Ba1O4,0108143,2,5.3245677543906975,-2.8945619964631555,4.1114,6.1484
Al2Ba1O4,0108143,3,5.3245677543906975,-2.8945619964631555,4.1114,6.1849
Al2Ba1O4,0108143,4,5.3245677543906975,-2.8945619964631555,4.1114,6.1409
Al2Ba1O4,0108143,5,5.3245677543906975,-2.8945619964631555,4.1114,6.0963
Al2Ba1O4,0108143,6,5.3245677543906975,-2.8945619964631555,4.1114,6.1325
Ba3O9Y4,0108190,1,11.137650333587297,-2.8403280769497066,3.2395,6.3296
Ba3O9Y4,0108190,2,10.767759410606288,-2.8403280769497066,3.2395,6.129
Ba3O9Y4,0108190,3,10.767759410606288,-2.8403280769497066,3.2395,6.1053
Al2O5Ti1,0108321,1,11.93585791389994,-1.9122077365342869,3.0905,5.8592
Al2O5Ti1,0108321,2,8.630212834145318,-1.9122077365342869,3.0905,6.3778
Al2O5Ti1,0108321,3,11.292496711340668,-1.9122077365342869,3.0905,6.4249
Al4O7Sr1,0108427,1,7.06717568576224,-2.8945619964631555,3.7524,6.1601
Al4O7Sr1,0108427,2,5.3245677543906975,-2.8945619964631555,3.7524,6.3726
Al4O7Sr1,0108427,3,7.06717568576224,-2.8945619964631555,3.7524,6.1625
Al4O7Sr1,0108427,4,7.986851631586046,-2.8945619964631555,3.7524,6.7311
Al5O12Y3,0108446,1,11.371890011028288,-2.8945619964631555,4.8435,6.6039
Al1O3Y1,0108689,1,7.986851631586046,-2.8945619964631555,3.3479,3.5762
Al1O3Y1,0108689,2,11.733267262151735,-2.8945619964631555,3.3479,5.1251
Ba1O4Y2,0108927,1,12.46453543625619,-2.8403280769497066,3.4285,6.5688
Ba1O4Y2,0108927,2,12.46453543625619,-2.8403280769497066,3.4285,6.5873
Ba1O4Y2,0108927,3,12.46453543625619,-2.8403280769497066,3.4285,6.6636
Ba1O4Y2,0108927,4,12.46453543625619,-2.8403280769497066,3.4285,6.6262
Al2O4Sr1,0108933,1,8.809783617133782,-2.8945619964631555,4.1372,6.2968
Al2O4Sr1,0108933,2,8.809783617133782,-2.8945619964631555,4.1372,6.2432
Al2O4Sr1,0108933,3,7.06717568576224,-2.8945619964631555,4.1372,6.2372
Al2O4Sr1,0108933,4,8.809783617133782,-2.8945619964631555,4.1372,6.3469
Al2O4Sr1,0108933,5,7.06717568576224,-2.8945619964631555,4.1372,6.263
Al2O4Sr1,0108933,6,7.06717568576224,-2.8945619964631555,4.1372,6.3343
Al2O4Sr1,0108933,7,8.809783617133782,-2.8945619964631555,4.1372,6.2482
Al2O4Sr1,0108933,8,7.06717568576224,-2.8945619964631555,4.1372,6.2083
Al2O9Y4,0109092,1,8.709606133832938,-2.8945619964631555,4.122,6.1713
Al2O9Y4,0109092,2,8.709606133832938,-2.8945619964631555,4.122,6.1876
Al2O9Y4,0109092,3,12.09464451327518,-3.290655589970924,4.122,6.7059
Al2O9Y4,0109092,4,12.09464451327518,-3.290655589970924,4.122,6.7954
Al2O9Y4,0109092,5,11.733267262151735,-2.8945619964631555,4.122,6.3322
Al2O9Y4,0109092,6,11.733267262151735,-2.8945619964631555,4.122,6.1492
Al2O9Y4,0109092,7,11.733267262151735,-2.8945619964631555,4.122,6.1696
Al2O9Y4,0109092,8,11.733267262151735,-2.8945619964631555,4.122,6.2906
Al2O9Y4,0109092,9,11.371890011028288,-2.8945619964631555,4.122,5.7929
Ba1O5Ti2,0109333,1,3.305645079754621,-1.9122077365342869,2.9058,5.5111
Ba1O5Ti2,0109333,2,9.916935239263863,-1.9122077365342869,2.9058,5.4485
Ba1O5Ti2,0109333,3,10.004842210809047,-1.9122077365342869,2.9058,5.8221
Ba1O5Ti2,0109333,4,6.611290159509242,-1.9122077365342869,2.9058,6.0078
Ba1O5Ti2,0109333,5,9.916935239263863,-1.9122077365342869,2.9058,5.5756
Ba4O30Ti13,0109458,1,6.611290159509242,-1.9122077365342869,2.6742,5.8796
Ba4O30Ti13,0109458,2,9.916935239263863,-1.9122077365342869,2.6742,5.5618
Ba4O30Ti13,0109458,3,13.222580319018483,-1.9122077365342869,2.6742,5.454
Ba4O30Ti13,0109458,4,11.613711264913764,-1.9122077365342869,2.6742,5.573
Ba4O30Ti13,0109458,5,6.611290159509242,-1.9122077365342869,2.6742,5.0833
Ba4O30Ti13,0109458,6,6.611290159509242,-1.9122077365342869,2.6742,5.4196
Ba4O30Ti13,0109458,7,11.613711264913764,-1.9122077365342869,2.6742,5.2835
Ba4O30Ti13,0109458,8,6.611290159509242,-1.9122077365342869,2.6742,5.0505
Ba4O30Ti13,0109458,9,9.916935239263863,-1.9122077365342869,2.6742,5.9937
In1O3Y1,0109668,1,10.940673151558505,-1.5993795332042406,2.0438,4.5724
In1O3Y1,0109668,2,10.940673151558505,-1.5993795332042406,2.0438,4.4242
In1O3Y1,0109668,3,8.632730428125155,-1.5993795332042406,2.0438,3.9393
In1O3Y1,0109668,4,8.632730428125155,-1.5993795332042406,2.0438,3.7667
Ba3In2O6,0109684,1,10.526483635803851,-1.5993795332042406,0.8592,3.6078
Ba3In2O6,0109684,2,10.353569894851633,-1.5993795332042406,0.8592,3.9611
Ca3O7Ti2,0109710,1,10.2847150771707,-1.9122077365342869,2.5897,5.5141
Ca3O7Ti2,0109710,2,8.815782456246808,-1.9122077365342869,2.5897,5.7494
Ca3O7Ti2,0109710,3,12.12142753600143,-1.9122077365342869,2.5897,5.7714
Ca3O7Ti2,0109710,4,12.12142753600143,-1.9122077365342869,2.5897,5.9078
Ca1In2O4,0109770,1,7.44578175863709,-1.5993795332042406,2.02,4.4374
In2O5Ti1,0110156,1,7.045024612958862,-1.5993795332042406,1.9703,4.4726
In2O5Ti1,0110156,2,8.914714379560982,-1.5993795332042406,1.9703,4.0504
In2O5Ti1,0110156,3,8.914714379560982,-1.5993795332042406,1.9703,4.1145
In2O5Ti1,0110156,4,7.4787590664084815,-1.5993795332042406,1.9703,3.9906
In2O5Ti1,0110156,5,9.916935239263863,-1.9122077365342869,1.9703,4.7203
Ba2In2O5,0110289,1,10.526483635803851,-1.5993795332042406,0.9164,3.8319
Ba2In2O5,0110289,2,8.829707610153948,-1.5993795332042406,0.9164,3.0675
Ba2In2O5,0110289,3,7.132931584504046,-1.5993795332042406,0.9164,3.5441
In1La1O3,0110733,1,9.629850776479207,-1.5993795332042406,2.647,4.7424
In1La1O3,0110733,2,12.57508639811669,-1.5993795332042406,2.647,4.6469
La2O5Ti1,0110854,1,12.14135194466707,-1.9122077365342869,3.4608,6.2634
La2O5Ti1,0110854,2,9.196116323029587,-1.9122077365342869,3.4608,6.0535
La2O5Ti1,0110854,3,12.501761402784208,-1.9122077365342869,3.4608,5.6119
La2O5Ti1,0110854,4,11.780942486549932,-3.100471243274967,3.4608,6.7189
La2O5Ti1,0110854,5,12.14135194466707,-1.9122077365342869,3.4608,5.9992
La4O12Ti3,0111085,1,12.14135194466707,-1.9122077365342869,3.0176,5.8879
La4O12Ti3,0111085,2,9.556525781146725,-1.9122077365342869,3.0176,5.7683
In2O4Sr1,0111316,1,9.094285162549445,-1.5993795332042406,1.8126,4.4539
In2O4Sr1,0111316,2,9.094285162549445,-1.5993795332042406,1.8126,4.4839
In2O4Sr1,0111316,3,9.094285162549445,-1.5993795332042406,1.8126,4.2635
In2O4Sr1,0111316,4,9.094285162549445,-1.5993795332042406,1.8126,4.3469
O7Sr3Ti2,0111479,1,6.611290159509242,-1.9122077365342869,2.0175,5.1173
O7Sr3Ti2,0111479,2,12.01868473661233,-1.9122077365342869,2.0175,5.393
O7Sr3Ti2,0111479,3,6.611290159509242,-1.9122077365342869,2.0175,5.4334
La1O3Y1,0111508,1,11.937793499912555,-3.100471243274967,4.4902,6.6611
La1O3Y1,0111508,2,11.937793499912555,-3.100471243274967,4.4902,6.5344
La2O3,0111542,1,11.780942486549932,-3.100471243274967,3.4842,6.5007
La2O7Ti2,0111567,1,9.556525781146725,-1.9122077365342869,2.9208,5.9762
La2O7Ti2,0111567,2,12.501761402784208,-1.9122077365342869,2.9208,5.71
La2O7Ti2,0111567,3,15.446997024421691,-1.9122077365342869,2.9208,5.684
La2O7Ti2,0111567,4,15.446997024421691,-1.9122077365342869,2.9208,5.7062
La2O7Ti2,0111567,5,12.501761402784208,-1.9122077365342869,2.9208,5.7495
La2O7Ti2,0111567,6,12.501761402784208,-1.9122077365342869,2.9208,5.7906
La2O7Ti2,0111567,7,12.501761402784208,-1.9122077365342869,2.9208,6.0004
La2O7Ti2,0111567,8,12.501761402784208,-1.9122077365342869,2.9208,5.9466
La2O7Ti2,0111567,9,12.14135194466707,-1.9122077365342869,2.9208,6.2802
La2O7Ti2,0111567,10,9.196116323029587,-1.9122077365342869,2.9208,5.7207
La2O7Ti2,0111567,11,12.14135194466707,-1.9122077365342869,2.9208,5.8706
La2O7Ti2,0111567,12,12.14135194466707,-1.9122077365342869,2.9208,6.1468
La2O7Ti2,0111567,13,12.501761402784208,-1.9122077365342869,2.9208,5.5873
La2O7Ti2,0111567,14,12.501761402784208,-1.9122077365342869,2.9208,5.9513
O4Sr1Y2,0111982,1,12.55619924769947,-3.0678237941146254,3.9198,6.6199
O4Sr1Y2,0111982,2,12.55619924769947,-3.0678237941146254,3.9198,6.6208
O4Sr1Y2,0111982,3,12.55619924769947,-3.0678237941146254,3.9198,6.6705
O4Sr1Y2,0111982,4,12.55619924769947,-3.0678237941146254,3.9198,6.6572
O7Ti2Y2,0112035,1,12.65861241614683,-1.9122077365342869,2.8858,5.5218
O7Ti2Y2,0112035,2,12.09464451327518,-3.290655589970924,2.8858,6.9369
O5Ti1Y2,0112334,1,12.09464451327518,-3.290655589970924,3.4185,6.5839
O5Ti1Y2,0112334,2,12.376628464711006,-1.9122077365342869,3.4185,6.2371
O5Ti1Y2,0112334,3,12.376628464711006,-1.9122077365342869,3.4185,5.8786
O5Ti1Y2,0112334,4,9.352967336392211,-1.9122077365342869,3.4185,6.1246
O5Ti1Y2,0112334,5,12.65861241614683,-1.9122077365342869,3.4185,5.658
Al1Fe1O3,0113386,1,11.548052646345075,-1.2626789622871115,1.9542,4.6654
Al1Fe1O3,0113386,2,9.473557682360283,-1.2626789622871115,1.9542,5.5057
Al1Fe1O3,0113386,3,6.811273805164934,-1.2626789622871115,1.9542,3.7559
Al1Fe1O3,0113386,4,10.06134659557084,-1.2626789622871115,1.9542,4.4172
Al1Fe1O3,0113386,5,6.223484891954378,-1.2626789622871115,1.9542,3.3084
Al1Fe1O3,0113386,6,7.39906271837549,-1.2626789622871115,1.9542,5.9504
Ba1Fe1O3,0115344,1,,,0.6255,0.5393
Ba1Fe1O3,0115344,2,,,0.6255,0.5346
Ba1Fe1O3,0115344,3,,,0.6255,0.2815
Ba1Fe1O3,0115344,4,,,0.6255,0.4659
Ba1Fe1O3,0115344,5,,,0.6255,1.0307
Ba1Fe1O3,0115344,6,,,0.6255,1.2079
Ba1Fe1O3,0115344,7,,,0.6255,1.2223
Ba1Fe1O3,0115344,8,,,0.6255,1.1015
Ba1Fe1O3,0115344,9,,,0.6255,1.2119
Ba1Fe1O3,0115344,10,,-1.2626789622871115,0.6255,0.8996
Ba1Mn3O6,0117270,1,8.14562634012733,-0.433744681701679,0.0939,1.8772
Ba1Mn3O6,0117270,2,7.856668893177051,-0.5156224113418986,0.0939,1.7261
Ba1Mn3O6,0117270,3,8.14562634012733,-0.433744681701679,0.0939,1.5426
Ba1Mn3O6,0117270,4,8.43458378707761,-0.433744681701679,0.0939,1.5668
Ba1Mn3O6,0117270,5,,-0.5156224113418986,0.0939,1.4805
Ba1Mn3O6,0117270,6,,-0.433744681701679,0.0939,0.285
Ba1Mn3O6,0117270,7,,-0.433744681701679,0.0939,2.3331
Ba1Mn3O6,0117270,8,6.181459116833068,-0.433744681701679,0.0939,2.3141
Ba1Mn3O6,0117270,9,6.181459116833068,-0.433744681701679,0.0939,2.5242
Ba1Mn3O6,0117270,10,6.181459116833068,-0.433744681701679,0.0939,2.3704
Ba1Mn3O6,0117270,11,4.217291893538805,-0.433744681701679,0.0939,1.2961
Ba1Mn3O6,0117270,12,4.217291893538805,-0.433744681701679,0.0939,1.4482
Ca2Co1O3,0117717,1,10.498045461292564,-1.2318970816502175,0.8107,4.0287
Ca2Co1O3,0117717,2,10.759160107138468,-1.2318970816502175,0.8107,4.9227
Co1Nb2O6,0119208,1,11.140983824417749,-1.2318970816502175,2.5662,6.025
Co1Nb2O6,0119208,2,7.933888631686109,-1.2318970816502175,2.5662,5.1892
Co1Nb2O6,0119208,3,14.348079017149388,-1.6041816447738562,2.5662,5.7406
Fe2O6Sr3,0124041,1,11.119421653455753,-1.2626789622871115,0.0784,3.4211
Fe2O6Sr3,0124041,2,10.787534620842502,-1.2626789622871115,0.0784,4.1241
Fe2O5Sr3,0124785,1,,,0.6747,4.7267
Fe2O5Sr3,0124785,2,,,0.6747,4.778
Fe2O5Sr3,0124785,3,,,0.6747,5.4016
Mn1O2,0125667,1,6.759374010733628,-0.433744681701679,1.3886,2.7443
Mn1O2,0125667,2,6.759374010733628,-0.433744681701679,1.3886,2.145
Mg4Nb2O9,0126437,1,13.013767536815086,-1.6041816447738562,3.656,5.7126
Mg4Nb2O9,0126437,2,9.955265293789704,-1.6041816447738562,3.656,6.2767
La1Mn1O3,0126619,1,9.818805689863492,-0.5156224113418986,1.0121,3.7311
La1Mn1O3,0126619,2,12.764041311500975,-0.5156224113418986,1.0121,4.034
Mn1O3Sr1,0126839,1,4.506249340489085,-0.433744681701679,1.8446,2.6833
Mn1O3Sr1,0126839,2,4.506249340489085,-0.433744681701679,1.8446,2.6973
Mn1O3Sr1,0126839,3,4.506249340489085,-0.433744681701679,1.8446,1.9142
Mn1O3Sr1,0126839,4,4.506249340489085,-0.433744681701679,1.8446,1.9025
Ba1Nb2O6,0133995,1,12.95893806273273,-1.6041816447738562,2.5495,5.2003
Ba1Nb2O6,0133995,2,9.565386011432926,-1.6041816447738562,2.5495,5.4784
Ba1Nb2O6,0133995,3,9.565386011432926,-1.6041816447738562,2.5495,5.3742
Ba1Mn2O3,0134600,1,9.733023624170794,-1.994603679653242,0.7685,4.7909
Ba1Mn2O3,0134600,2,9.956839889035104,-1.994603679653242,0.7685,5.4596
Co1Mn1O3,0136261,1,7.657444966458732,-0.433744681701679,1.0907,2.7537
Co1O3Sr1,0136293,1,,,0.4887,2.4789
Co1O3Sr1,0136293,2,,,0.4887,2.8649
Co1O3Sr1,0136293,3,,,0.4887,2.7913
Co1O3Sr1,0136293,4,,,0.4887,3.1962
Co1O3Sr1,0136293,5,,,0.4887,2.8475
Co1O3Sr1,0136293,6,,,0.4887,2.38
Co1O3Sr1,0136293,7,,,0.4887,2.4032
Co1O3Sr1,0136293,8,,,0.4887,2.3349
Co1O3Sr1,0136293,9,8.71303965685771,-3.0678237941146254,0.4887,0.2835
Co1O3Sr1,0136293,10,8.71303965685771,-3.0678237941146254,0.4887,0.2988
Co1O3Sr1,0136293,11,8.71303965685771,-3.0678237941146254,0.4887,0.3353
Co1O3Sr1,0136293,12,8.71303965685771,-3.0678237941146254,0.4887,0.3052
Co1O3Ti1,0136734,1,9.762485785478889,-1.2318970816502175,2.1713,5.3321
Fe1O4Sr2,0142463,1,,,0.2288,1.9858
Fe1O4Sr2,0142463,2,,,0.2288,2.2501
Fe2O5Sr2,0143474,1,11.119421653455753,-1.2626789622871115,1.6374,3.6862
Fe2O5Sr2,0143474,2,11.119421653455753,-1.2626789622871115,1.6374,3.695
Fe2O5Sr2,0143474,3,9.376813722084211,-1.2626789622871115,1.6374,3.7262
Fe2O5Sr2,0143474,4,9.376813722084211,-1.2626789622871115,1.6374,3.674
Fe2O5Sr2,0143474,5,7.634205790712668,-1.2626789622871115,1.6374,3.4575
Fe2O5Ti1,0143825,1,7.454635007724206,-1.2626789622871115,1.8818,3.4937
Fe2O5Ti1,0143825,2,9.529129971708999,-1.2626789622871115,1.8818,3.3802
Fe2O5Ti1,0143825,3,10.760280087478826,-1.2626789622871115,1.8818,3.684
La3Nb1O7,0143911,1,10.67316424899143,-1.6041816447738562,3.0469,6.0688
La3Nb1O7,0143911,2,9.565386011432926,-1.6041816447738562,3.0469,5.9297
La3Nb1O7,0143911,3,11.780942486549932,-3.100471243274967,3.0469,6.198
La3Nb1O7,0143911,4,13.618399870628913,-1.6041816447738562,3.0469,6.0716
Mg1Nb2O6,0144307,1,11.289576774124006,-1.6041816447738562,3.5232,5.5587
Mg1Nb2O6,0144307,2,8.231074531098624,-1.6041816447738562,3.5232,5.7976
Mg1Nb2O6,0144307,3,14.348079017149388,-1.6041816447738562,3.5232,5.892
Mn2O5Y1,0144940,1,10.264614150176396,-0.433744681701679,1.1218,3.4069
Mn2O5Y1,0144940,2,10.553571597126675,-0.433744681701679,1.1218,4.1797
Mn2O5Y1,0144940,3,6.470416563783348,-0.433744681701679,1.1218,2.5169
Mn2O5Y1,0144940,4,9.975656703226115,-0.5156224113418986,1.1218,4.0788
Mn2O5Sr2,0145133,1,3.9283344465885257,-0.5156224113418986,0.6477,3.162
Mn2O5Sr2,0145133,2,10.898766172074694,-0.5156224113418986,0.6477,3.2408
Mn2O5Sr2,0145133,3,10.898766172074694,-0.5156224113418986,0.6477,3.5082
Mn4Nb2O9,0147238,1,12.73512179786842,-1.6041816447738562,2.365,5.1592
Mn4Nb2O9,0147238,2,9.537296685369704,-1.6041816447738562,2.365,5.6565
Ni1O3Ti1,0149539,1,9.786061965195364,-1.242157708529182,2.2791,5.0491
Al1Nb1O4,0151582,1,7.444976882911812,-1.6041816447738562,3.5385,5.8591
Al1Nb1O4,0151582,2,12.227669888628274,-1.6041816447738562,3.5385,5.9759
Al1Nb1O4,0151582,3,12.76954463730251,-1.6041816447738562,3.5385,6.3338
Al1Nb1O4,0151582,4,12.227669888628274,-1.6041816447738562,3.5385,5.6034
Ba3Ni1O4,0154647,1,10.180656153899415,-2.8403280769497066,1.5908,3.965
Ba3Ni1O4,0154647,2,10.071266031092573,-1.242157708529182,1.5908,4.1209
Ca1Co2O4,0155087,1,,,1.5016,4.3137
Ca1Co2O4,0155087,2,,,1.5016,3.3239
Ca1Co2O4,0155087,3,,,1.5016,3.9338
Ca1Co2O4,0155087,4,,,1.5016,3.5178
Co1O3Y1,0155205,1,,,0.9879,2.4751
Co1O3Y1,0155205,2,,,0.9879,2.5041
Fe1O3Sr1,0159544,1,,,0.0467,0.934
Fe2O7Sr3,0159759,1,,,0.0367,1.0297
Fe2O7Sr3,0159759,2,,,0.0367,1.6842
Fe2O7Sr3,0159759,3,,,0.0367,0.5224